Li7La3Zr2O12
   1.0
    cell 0.0  0.0
    0.0  13.2 0.0
    0.0  0.0  25.3
     Li La Zr O
 110   48   32  192
Direct configuration=    0
  0.5000000000000000  0.0000000000000000  0.8750000000000000
  0.5000000000000000  0.0000000000000000  0.1250000000000000
  0.5000000000000000  0.0000000000000000  0.6250000000000000
  0.5000000000000000  0.5000000000000000  0.2500000000000000
  0.5000000000000000  0.5000000000000000  0.7500000000000000
  0.0000000000000000  0.0000000000000000  0.2500000000000000
  0.0000000000000000  0.0000000000000000  0.7500000000000000
  0.6786240274846320  0.1786240274846328  0.0000000000000000
  0.6786240274846320  0.1786240274846328  0.5000000000000000
  0.3213759725153675  0.1786240274846328  0.2500000000000000
  0.3213759725153675  0.1786240274846328  0.7500000000000000
  0.1786240274846328  0.1786240274846328  0.1250000000000000
  0.1786240274846328  0.1786240274846328  0.6250000000000000
  0.8213759725153680  0.1786240274846328  0.3750000000000000
  0.8213759725153680  0.1786240274846328  0.8750000000000000
  0.3213759725153675  0.3213759725153675  0.3750000000000000
  0.6786240274846320  0.3213759725153675  0.1250000000000000
  0.6786240274846320  0.3213759725153675  0.6250000000000000
  0.8213759725153680  0.3213759725153675  0.2500000000000000
  0.8213759725153680  0.3213759725153675  0.7500000000000000
  0.6786240274846320  0.8213759725153680  0.2500000000000000
  0.6786240274846320  0.8213759725153680  0.7500000000000000
  0.3361156432648277  0.0816068042594613  0.1595092971528761
  0.3361156432648277  0.0816068042594613  0.6595092971528761
  0.6638853567351771  0.0816068042594613  0.4095092971528762
  0.6638853567351771  0.0816068042594613  0.9095092971528762
  0.0816068042594613  0.8361146432648229  0.2845092971528762
  0.0816068042594613  0.8361146432648229  0.7845092971528762
  0.4183931957405388  0.3361156432648277  0.2845092971528762
  0.4183931957405388  0.3361156432648277  0.7845092971528762
  0.6638853567351771  0.4183931957405388  0.2154907028471239
  0.6638853567351771  0.4183931957405388  0.7154907028471239
  0.8361146432648229  0.9183941957405434  0.2154907028471239
  0.8361146432648229  0.9183941957405434  0.7154907028471239
  0.4183931957405388  0.1638853567351770  0.3404907028471238
  0.4183931957405388  0.1638853567351770  0.8404907028471238
  0.5816058042594566  0.1638853567351770  0.0904912028471263
  0.5816058042594566  0.1638853567351770  0.5904912028471263
  0.8361146432648229  0.4183931957405388  0.1595092971528761
  0.8361146432648229  0.4183931957405388  0.6595092971528761
  0.1638853567351770  0.4183931957405388  0.4095092971528762
  0.1638853567351770  0.4183931957405388  0.9095092971528762
  0.5816058042594566  0.6638853567351771  0.2845092971528762
  0.5816058042594566  0.6638853567351771  0.7845092971528762
  0.9183941957405434  0.1638853567351770  0.2845092971528762
  0.9183941957405434  0.1638853567351770  0.7845092971528762
  0.1638853567351770  0.0816068042594613  0.2154907028471239
  0.1638853567351770  0.0816068042594613  0.7154907028471239
  0.3361156432648277  0.5816058042594566  0.2154907028471239
  0.3361156432648277  0.5816058042594566  0.7154907028471239
  0.9183941957405434  0.3361156432648277  0.3404907028471238
  0.9183941957405434  0.3361156432648277  0.8404907028471238
  0.0816068042594613  0.3361156432648277  0.0904912028471263
  0.0816068042594613  0.3361156432648277  0.5904912028471263
  0.0000000000000000  0.5000000000000000  0.1250000000000000
  0.0000000000000000  0.5000000000000000  0.6250000000000000
  0.0000000000000000  0.5000000000000000  0.3750000000000000
  0.0000000000000000  0.5000000000000000  0.8750000000000000
  0.0000000000000000  0.0000000000000000  0.0000000000000000
  0.0000000000000000  0.0000000000000000  0.5000000000000000
  0.5000000000000000  0.5000000000000000  0.0000000000000000
  0.5000000000000000  0.5000000000000000  0.5000000000000000
  0.1786240274846328  0.6786240274846320  0.2500000000000000
  0.1786240274846328  0.6786240274846320  0.7500000000000000
  0.8213759725153680  0.6786240274846320  0.0000000000000000
  0.8213759725153680  0.6786240274846320  0.5000000000000000
  0.6786240274846320  0.6786240274846320  0.3750000000000000
  0.6786240274846320  0.6786240274846320  0.8750000000000000
  0.3213759725153675  0.6786240274846320  0.1250000000000000
  0.3213759725153675  0.6786240274846320  0.6250000000000000
  0.8213759725153680  0.8213759725153680  0.1250000000000000
  0.8213759725153680  0.8213759725153680  0.6250000000000000
  0.1786240274846328  0.8213759725153680  0.3750000000000000
  0.1786240274846328  0.8213759725153680  0.8750000000000000
  0.3213759725153675  0.8213759725153680  0.0000000000000000
  0.3213759725153675  0.8213759725153680  0.5000000000000000
  0.1786240274846328  0.3213759725153675  0.0000000000000000
  0.1786240274846328  0.3213759725153675  0.5000000000000000
  0.8361146432648229  0.5816058042594566  0.4095092971528762
  0.8361146432648229  0.5816058042594566  0.9095092971528762
  0.1638853567351770  0.5816058042594566  0.1595092971528761
  0.1638853567351770  0.5816058042594566  0.6595092971528761
  0.5816058042594566  0.3361156432648277  0.0345087971528738
  0.5816058042594566  0.3361156432648277  0.5345087971528738
  0.9183941957405434  0.8361146432648229  0.0345087971528738
  0.9183941957405434  0.8361146432648229  0.5345087971528738
  0.1638853567351770  0.9183941957405434  0.4654907028471238
  0.1638853567351770  0.9183941957405434  0.9654907028471238
  0.3361156432648277  0.4183931957405388  0.4654907028471238
  0.3361156432648277  0.4183931957405388  0.9654907028471238
  0.9183941957405434  0.6638853567351771  0.0904912028471263
  0.9183941957405434  0.6638853567351771  0.5904912028471263
  0.0816068042594613  0.6638853567351771  0.3404907028471238
  0.0816068042594613  0.6638853567351771  0.8404907028471238
  0.3361156432648277  0.9183941957405434  0.4095092971528762
  0.3361156432648277  0.9183941957405434  0.9095092971528762
  0.6638853567351771  0.9183941957405434  0.1595092971528761
  0.6638853567351771  0.9183941957405434  0.6595092971528761
  0.0816068042594613  0.1638853567351770  0.0345087971528738
  0.0816068042594613  0.1638853567351770  0.5345087971528738
  0.4183931957405388  0.6638853567351771  0.0345087971528738
  0.4183931957405388  0.6638853567351771  0.5345087971528738
  0.6638853567351771  0.5816058042594566  0.4654907028471238
  0.6638853567351771  0.5816058042594566  0.9654907028471238
  0.8361146432648229  0.0816068042594613  0.4654907028471238
  0.8361146432648229  0.0816068042594613  0.9654907028471238
  0.4183931957405388  0.8361146432648229  0.0904912028471263
  0.4183931957405388  0.8361146432648229  0.5904912028471263
  0.5816058042594566  0.8361146432648229  0.3404907028471238
  0.5816058042594566  0.8361146432648229  0.8404907028471238
  0.5000000000000000  0.0000000000000000  0.0000000000000000
  0.5000000000000000  0.0000000000000000  0.5000000000000000
  0.5000000000000000  0.0000000000000000  0.2500000000000000
  0.5000000000000000  0.0000000000000000  0.7500000000000000
  0.0000000000000000  0.0000000000000000  0.1250000000000000
  0.0000000000000000  0.0000000000000000  0.6250000000000000
  0.5000000000000000  0.5000000000000000  0.1250000000000000
  0.5000000000000000  0.5000000000000000  0.6250000000000000
  0.7500000000000000  0.6280221762712267  0.1875000000000000
  0.7500000000000000  0.6280221762712267  0.6875000000000000
  0.7500000000000000  0.1280221762712270  0.1875000000000000
  0.7500000000000000  0.1280221762712270  0.6875000000000000
  0.6280221762712267  0.2500000000000000  0.3125000000000000
  0.6280221762712267  0.2500000000000000  0.8125000000000000
  0.8719778237287733  0.7500000000000000  0.3125000000000000
  0.8719778237287733  0.7500000000000000  0.8125000000000000
  0.7500000000000000  0.3719778237287730  0.4375000000000000
  0.7500000000000000  0.3719778237287730  0.9375000000000000
  0.7500000000000000  0.8719778237287733  0.4375000000000000
  0.7500000000000000  0.8719778237287733  0.9375000000000000
  0.6280221762712267  0.7500000000000000  0.0625000000000000
  0.6280221762712267  0.7500000000000000  0.5625000000000000
  0.8719778237287733  0.2500000000000000  0.0625000000000000
  0.8719778237287733  0.2500000000000000  0.5625000000000000
  0.0000000000000000  0.5000000000000000  0.2500000000000000
  0.0000000000000000  0.5000000000000000  0.7500000000000000
  0.0000000000000000  0.5000000000000000  0.0000000000000000
  0.0000000000000000  0.5000000000000000  0.5000000000000000
  0.5000000000000000  0.5000000000000000  0.3750000000000000
  0.5000000000000000  0.5000000000000000  0.8750000000000000
  0.0000000000000000  0.0000000000000000  0.3750000000000000
  0.0000000000000000  0.0000000000000000  0.8750000000000000
  0.2500000000000000  0.1280221762712270  0.4375000000000000
  0.2500000000000000  0.1280221762712270  0.9375000000000000
  0.2500000000000000  0.6280221762712267  0.4375000000000000
  0.2500000000000000  0.6280221762712267  0.9375000000000000
  0.1280221762712270  0.7500000000000000  0.0625000000000000
  0.1280221762712270  0.7500000000000000  0.5625000000000000
  0.3719778237287730  0.2500000000000000  0.0625000000000000
  0.3719778237287730  0.2500000000000000  0.5625000000000000
  0.2500000000000000  0.8719778237287733  0.1875000000000000
  0.2500000000000000  0.8719778237287733  0.6875000000000000
  0.2500000000000000  0.3719778237287730  0.1875000000000000
  0.2500000000000000  0.3719778237287730  0.6875000000000000
  0.1280221762712270  0.2500000000000000  0.3125000000000000
  0.1280221762712270  0.2500000000000000  0.8125000000000000
  0.3719778237287730  0.7500000000000000  0.3125000000000000
  0.3719778237287730  0.7500000000000000  0.8125000000000000
  0.7500000000000000  0.5000000000000000  0.3125000000000000
  0.7500000000000000  0.5000000000000000  0.8125000000000000
  0.7500000000000000  0.0000000000000000  0.3125000000000000
  0.7500000000000000  0.0000000000000000  0.8125000000000000
  0.5000000000000000  0.2500000000000000  0.4375000000000000
  0.5000000000000000  0.2500000000000000  0.9375000000000000
  0.5000000000000000  0.2500000000000000  0.1875000000000000
  0.5000000000000000  0.2500000000000000  0.6875000000000000
  0.7500000000000000  0.5000000000000000  0.0625000000000000
  0.7500000000000000  0.5000000000000000  0.5625000000000000
  0.2500000000000000  0.5000000000000000  0.3125000000000000
  0.2500000000000000  0.5000000000000000  0.8125000000000000
  0.5000000000000000  0.7500000000000000  0.1875000000000000
  0.5000000000000000  0.7500000000000000  0.6875000000000000
  0.0000000000000000  0.2500000000000000  0.1875000000000000
  0.0000000000000000  0.2500000000000000  0.6875000000000000
  0.2500000000000000  0.0000000000000000  0.0625000000000000
  0.2500000000000000  0.0000000000000000  0.5625000000000000
  0.2500000000000000  0.5000000000000000  0.0625000000000000
  0.2500000000000000  0.5000000000000000  0.5625000000000000
  0.0000000000000000  0.7500000000000000  0.1875000000000000
  0.0000000000000000  0.7500000000000000  0.6875000000000000
  0.0000000000000000  0.7500000000000000  0.4375000000000000
  0.0000000000000000  0.7500000000000000  0.9375000000000000
  0.2500000000000000  0.0000000000000000  0.3125000000000000
  0.2500000000000000  0.0000000000000000  0.8125000000000000
  0.7500000000000000  0.0000000000000000  0.0625000000000000
  0.7500000000000000  0.0000000000000000  0.5625000000000000
  0.0000000000000000  0.2500000000000000  0.4375000000000000
  0.0000000000000000  0.2500000000000000  0.9375000000000000
  0.5000000000000000  0.7500000000000000  0.4375000000000000
  0.5000000000000000  0.7500000000000000  0.9375000000000000
  0.8050305329974349  0.4649677486250596  0.2357640927878268
  0.8050305329974349  0.4649677486250596  0.7357640927878267
  0.6949694670025651  0.9649677486250594  0.2357640927878268
  0.6949694670025651  0.9649677486250594  0.7357640927878267
  0.4649677486250596  0.3050305329974345  0.3607640927878268
  0.4649677486250596  0.3050305329974345  0.8607640927878268
  0.5350322513749406  0.3050305329974345  0.1107640927878267
  0.5350322513749406  0.3050305329974345  0.6107640927878267
  0.1949694670025652  0.0350322513749403  0.1392359072121732
  0.1949694670025652  0.0350322513749403  0.6392359072121733
  0.8050305329974349  0.0350322513749403  0.3892359072121732
  0.8050305329974349  0.0350322513749403  0.8892359072121732
  0.5350322513749406  0.1949694670025652  0.0142359072121733
  0.5350322513749406  0.1949694670025652  0.5142359072121733
  0.4649677486250596  0.1949694670025652  0.2642359072121732
  0.4649677486250596  0.1949694670025652  0.7642359072121732
  0.8050305329974349  0.5350322513749406  0.4857640927878268
  0.8050305329974349  0.5350322513749406  0.9857640927878268
  0.6949694670025651  0.0350322513749403  0.4857640927878268
  0.6949694670025651  0.0350322513749403  0.9857640927878268
  0.9649677486250594  0.1949694670025652  0.3607640927878268
  0.9649677486250594  0.1949694670025652  0.8607640927878268
  0.0350322513749403  0.1949694670025652  0.1107640927878267
  0.0350322513749403  0.1949694670025652  0.6107640927878267
  0.6949694670025651  0.4649677486250596  0.1392359072121732
  0.6949694670025651  0.4649677486250596  0.6392359072121733
  0.3050305329974345  0.4649677486250596  0.3892359072121732
  0.3050305329974345  0.4649677486250596  0.8892359072121732
  0.0350322513749403  0.3050305329974345  0.0142359072121733
  0.0350322513749403  0.3050305329974345  0.5142359072121733
  0.9649677486250594  0.3050305329974345  0.2642359072121732
  0.9649677486250594  0.3050305329974345  0.7642359072121732
  0.1029683187542772  0.0544049441245080  0.2953943076217537
  0.1029683187542772  0.0544049441245080  0.7953943076217538
  0.3970316812457227  0.5544049441245077  0.2953943076217537
  0.3970316812457227  0.5544049441245077  0.7953943076217538
  0.5544049441245077  0.1029683187542772  0.1703943076217541
  0.5544049441245077  0.1029683187542772  0.6703943076217540
  0.4455950558754921  0.1029683187542772  0.4203943076217537
  0.4455950558754921  0.1029683187542772  0.9203943076217538
  0.8970316812457226  0.4455950558754921  0.0796056923782459
  0.8970316812457226  0.4455950558754921  0.5796056923782459
  0.1029683187542772  0.4455950558754921  0.3296056923782463
  0.1029683187542772  0.4455950558754921  0.8296056923782462
  0.4455950558754921  0.3970316812457227  0.2046056923782459
  0.4455950558754921  0.3970316812457227  0.7046056923782460
  0.0544049441245080  0.8970316812457226  0.2046056923782459
  0.0544049441245080  0.8970316812457226  0.7046056923782460
  0.6029683187542774  0.4455950558754921  0.2953943076217537
  0.6029683187542774  0.4455950558754921  0.7953943076217538
  0.8970316812457226  0.9455950558754923  0.2953943076217537
  0.8970316812457226  0.9455950558754923  0.7953943076217538
  0.0544049441245080  0.3970316812457227  0.1703943076217541
  0.0544049441245080  0.3970316812457227  0.6703943076217540
  0.4455950558754921  0.8970316812457226  0.1703943076217541
  0.4455950558754921  0.8970316812457226  0.6703943076217540
  0.8970316812457226  0.5544049441245077  0.3296056923782463
  0.8970316812457226  0.5544049441245077  0.8296056923782462
  0.6029683187542774  0.0544049441245080  0.3296056923782463
  0.6029683187542774  0.0544049441245080  0.8296056923782462
  0.9455950558754923  0.1029683187542772  0.2046056923782459
  0.9455950558754923  0.1029683187542772  0.7046056923782460
  0.5544049441245077  0.6029683187542774  0.2046056923782459
  0.5544049441245077  0.6029683187542774  0.7046056923782460
  0.7773267968688156  0.6500974947030971  0.0892728373170682
  0.7773267968688156  0.6500974947030971  0.5892728373170681
  0.7226732031311844  0.1500974947030978  0.0892728373170682
  0.7226732031311844  0.1500974947030978  0.5892728373170681
  0.6500974947030971  0.2773267968688155  0.2142728373170681
  0.6500974947030971  0.2773267968688155  0.7142728373170681
  0.3499025052969022  0.2773267968688155  0.4642728373170684
  0.3499025052969022  0.2773267968688155  0.9642728373170684
  0.7226732031311844  0.3499025052969022  0.0357271626829318
  0.7226732031311844  0.3499025052969022  0.5357271626829319
  0.2773267968688155  0.3499025052969022  0.2857271626829316
  0.2773267968688155  0.3499025052969022  0.7857271626829316
  0.8499025052969029  0.7226732031311844  0.4107271626829316
  0.8499025052969029  0.7226732031311844  0.9107271626829316
  0.6500974947030971  0.2226732031311844  0.4107271626829316
  0.6500974947030971  0.2226732031311844  0.9107271626829316
  0.7773267968688156  0.3499025052969022  0.3392728373170684
  0.7773267968688156  0.3499025052969022  0.8392728373170684
  0.7226732031311844  0.8499025052969029  0.3392728373170684
  0.7226732031311844  0.8499025052969029  0.8392728373170684
  0.1500974947030978  0.2226732031311844  0.2142728373170681
  0.1500974947030978  0.2226732031311844  0.7142728373170681
  0.3499025052969022  0.7226732031311844  0.2142728373170681
  0.3499025052969022  0.7226732031311844  0.7142728373170681
  0.7226732031311844  0.6500974947030971  0.2857271626829316
  0.7226732031311844  0.6500974947030971  0.7857271626829316
  0.7773267968688156  0.1500974947030978  0.2857271626829316
  0.7773267968688156  0.1500974947030978  0.7857271626829316
  0.8499025052969029  0.2773267968688155  0.1607271626829319
  0.8499025052969029  0.2773267968688155  0.6607271626829319
  0.6500974947030971  0.7773267968688156  0.1607271626829319
  0.6500974947030971  0.7773267968688156  0.6607271626829319
  0.3050305329974345  0.9649677486250594  0.4857640927878268
  0.3050305329974345  0.9649677486250594  0.9857640927878268
  0.1949694670025652  0.4649677486250596  0.4857640927878268
  0.1949694670025652  0.4649677486250596  0.9857640927878268
  0.9649677486250594  0.8050305329974349  0.1107640927878267
  0.9649677486250594  0.8050305329974349  0.6107640927878267
  0.0350322513749403  0.8050305329974349  0.3607640927878268
  0.0350322513749403  0.8050305329974349  0.8607640927878268
  0.6949694670025651  0.5350322513749406  0.3892359072121732
  0.6949694670025651  0.5350322513749406  0.8892359072121732
  0.3050305329974345  0.5350322513749406  0.1392359072121732
  0.3050305329974345  0.5350322513749406  0.6392359072121733
  0.0350322513749403  0.6949694670025651  0.2642359072121732
  0.0350322513749403  0.6949694670025651  0.7642359072121732
  0.9649677486250594  0.6949694670025651  0.0142359072121733
  0.9649677486250594  0.6949694670025651  0.5142359072121733
  0.3050305329974345  0.0350322513749403  0.2357640927878268
  0.3050305329974345  0.0350322513749403  0.7357640927878267
  0.1949694670025652  0.5350322513749406  0.2357640927878268
  0.1949694670025652  0.5350322513749406  0.7357640927878267
  0.4649677486250596  0.6949694670025651  0.1107640927878267
  0.4649677486250596  0.6949694670025651  0.6107640927878267
  0.5350322513749406  0.6949694670025651  0.3607640927878268
  0.5350322513749406  0.6949694670025651  0.8607640927878268
  0.1949694670025652  0.9649677486250594  0.3892359072121732
  0.1949694670025652  0.9649677486250594  0.8892359072121732
  0.8050305329974349  0.9649677486250594  0.1392359072121732
  0.8050305329974349  0.9649677486250594  0.6392359072121733
  0.5350322513749406  0.8050305329974349  0.2642359072121732
  0.5350322513749406  0.8050305329974349  0.7642359072121732
  0.4649677486250596  0.8050305329974349  0.0142359072121733
  0.4649677486250596  0.8050305329974349  0.5142359072121733
  0.6029683187542774  0.5544049441245077  0.0453943076217541
  0.6029683187542774  0.5544049441245077  0.5453943076217540
  0.8970316812457226  0.0544049441245080  0.0453943076217541
  0.8970316812457226  0.0544049441245080  0.5453943076217540
  0.0544049441245080  0.6029683187542774  0.4203943076217537
  0.0544049441245080  0.6029683187542774  0.9203943076217538
  0.9455950558754923  0.6029683187542774  0.1703943076217541
  0.9455950558754923  0.6029683187542774  0.6703943076217540
  0.3970316812457227  0.9455950558754923  0.3296056923782463
  0.3970316812457227  0.9455950558754923  0.8296056923782462
  0.6029683187542774  0.9455950558754923  0.0796056923782459
  0.6029683187542774  0.9455950558754923  0.5796056923782459
  0.9455950558754923  0.8970316812457226  0.4546056923782463
  0.9455950558754923  0.8970316812457226  0.9546056923782462
  0.5544049441245077  0.3970316812457227  0.4546056923782463
  0.5544049441245077  0.3970316812457227  0.9546056923782462
  0.1029683187542772  0.9455950558754923  0.0453943076217541
  0.1029683187542772  0.9455950558754923  0.5453943076217540
  0.3970316812457227  0.4455950558754921  0.0453943076217541
  0.3970316812457227  0.4455950558754921  0.5453943076217540
  0.5544049441245077  0.8970316812457226  0.4203943076217537
  0.5544049441245077  0.8970316812457226  0.9203943076217538
  0.9455950558754923  0.3970316812457227  0.4203943076217537
  0.9455950558754923  0.3970316812457227  0.9203943076217538
  0.3970316812457227  0.0544049441245080  0.0796056923782459
  0.3970316812457227  0.0544049441245080  0.5796056923782459
  0.1029683187542772  0.5544049441245077  0.0796056923782459
  0.1029683187542772  0.5544049441245077  0.5796056923782459
  0.4455950558754921  0.6029683187542774  0.4546056923782463
  0.4455950558754921  0.6029683187542774  0.9546056923782462
  0.0544049441245080  0.1029683187542772  0.4546056923782463
  0.0544049441245080  0.1029683187542772  0.9546056923782462
  0.2773267968688155  0.1500974947030978  0.3392728373170684
  0.2773267968688155  0.1500974947030978  0.8392728373170684
  0.2226732031311844  0.6500974947030971  0.3392728373170684
  0.2226732031311844  0.6500974947030971  0.8392728373170684
  0.1500974947030978  0.7773267968688156  0.4642728373170684
  0.1500974947030978  0.7773267968688156  0.9642728373170684
  0.8499025052969029  0.7773267968688156  0.2142728373170681
  0.8499025052969029  0.7773267968688156  0.7142728373170681
  0.2226732031311844  0.8499025052969029  0.2857271626829316
  0.2226732031311844  0.8499025052969029  0.7857271626829316
  0.7773267968688156  0.8499025052969029  0.0357271626829318
  0.7773267968688156  0.8499025052969029  0.5357271626829319
  0.3499025052969022  0.2226732031311844  0.1607271626829319
  0.3499025052969022  0.2226732031311844  0.6607271626829319
  0.1500974947030978  0.7226732031311844  0.1607271626829319
  0.1500974947030978  0.7226732031311844  0.6607271626829319
  0.2773267968688155  0.8499025052969029  0.0892728373170682
  0.2773267968688155  0.8499025052969029  0.5892728373170681
  0.2226732031311844  0.3499025052969022  0.0892728373170682
  0.2226732031311844  0.3499025052969022  0.5892728373170681
  0.6500974947030971  0.7226732031311844  0.4642728373170684
  0.6500974947030971  0.7226732031311844  0.9642728373170684
  0.8499025052969029  0.2226732031311844  0.4642728373170684
  0.8499025052969029  0.2226732031311844  0.9642728373170684
  0.2226732031311844  0.1500974947030978  0.0357271626829318
  0.2226732031311844  0.1500974947030978  0.5357271626829319
  0.2773267968688155  0.6500974947030971  0.0357271626829318
  0.2773267968688155  0.6500974947030971  0.5357271626829319
  0.3499025052969022  0.7773267968688156  0.4107271626829316
  0.3499025052969022  0.7773267968688156  0.9107271626829316
  0.1500974947030978  0.2773267968688155  0.4107271626829316
  0.1500974947030978  0.2773267968688155  0.9107271626829316
Direct configuration=    10
   0.50175431  0.99929759  0.87592470
   0.50134348  0.99420302  0.12578299
   0.50321994  0.99455222  0.62682183
   0.50059163  0.48453517  0.25140829
   0.50001649  0.50079977  0.75303947
   0.99563040  0.00348924  0.24986979
   0.00251866  0.00833486  0.75211809
   0.68385819  0.19163013  0.00478208
   0.68379488  0.17662316  0.49989218
   0.31163248  0.17993141  0.24385491
   0.31920404  0.17558412  0.74399150
   0.17873994  0.17640479  0.12185288
   0.17969383  0.17959677  0.62267957
   0.82379145  0.17102133  0.37722423
   0.82264893  0.17475436  0.87272414
   0.31593454  0.32382346  0.37243425
   0.67578943  0.32327711  0.12706425
   0.67016036  0.31982226  0.62306516
   0.82274688  0.33102205  0.25253339
   0.82916001  0.32162172  0.74731241
   0.67354254  0.83572542  0.24946008
   0.68272960  0.82222869  0.75832222
   0.34290769  0.08462975  0.16016982
   0.34293272  0.06834035  0.65304705
   0.65365765  0.07856706  0.41099693
   0.66950704  0.08005512  0.91151382
   0.09316713  0.83702859  0.28606340
   0.08844844  0.83313740  0.78245935
   0.41934782  0.33228728  0.28180216
   0.41424931  0.34179570  0.78107362
   0.66817528  0.42384617  0.20779713
   0.65911925  0.41892613  0.72213439
   0.83698019  0.91419660  0.21423085
   0.82858951  0.90821667  0.71044453
   0.42293090  0.16344203  0.34689893
   0.40907817  0.16410986  0.83719913
   0.57708369  0.16841049  0.08305287
   0.57863711  0.15924527  0.59204552
   0.84187315  0.41911802  0.16345694
   0.82626744  0.41700171  0.65946022
   0.17370927  0.40937693  0.41032298
   0.16644919  0.41843022  0.90828510
   0.58475945  0.65422525  0.28660316
   0.58631287  0.65128615  0.78531342
   0.92663124  0.16999648  0.28654419
   0.92656205  0.17060054  0.78677634
   0.14906831  0.07659817  0.21832989
   0.16398846  0.07624652  0.70946090
   0.34120537  0.58450999  0.21922151
   0.33610613  0.57809924  0.71357528
   0.92343961  0.34035263  0.33956419
   0.91872322  0.32854628  0.84131045
   0.07735841  0.33512020  0.09076622
   0.08661292  0.33400410  0.59193082
   0.99750279  0.49722138  0.12727148
   0.99505702  0.49906029  0.62723266
   0.99947315  0.50426956  0.37851120
   0.99295956  0.49568102  0.87601713
   0.99945659  0.98831174  0.00194959
   0.00444168  0.00221162  0.49946971
   0.48991044  0.49530898  0.99887313
   0.49390232  0.49192555  0.50386705
   0.18393618  0.68103598  0.24585893
   0.17650165  0.68728519  0.74996660
   0.82288843  0.67456537  0.00337678
   0.81435056  0.67517740  0.50116270
   0.67910986  0.68388563  0.37113857
   0.67638118  0.68485797  0.87846822
   0.31153393  0.68278641  0.12266739
   0.31474018  0.67644081  0.63016623
   0.81815509  0.81851808  0.11845905
   0.80732370  0.81751197  0.62608928
   0.18615188  0.82696066  0.36977433
   0.17922146  0.82327230  0.87679898
   0.32593303  0.81623456  0.99954376
   0.31179354  0.82672264  0.50074839
   0.19057084  0.31910202  0.00272546
   0.18080882  0.31710129  0.50206028
   0.83685266  0.58510753  0.40345363
   0.84181505  0.58248673  0.90901073
   0.15496200  0.58868855  0.15850071
   0.16796672  0.58948054  0.66828644
   0.58553377  0.34339436  0.03356731
   0.58560234  0.34411894  0.53379678
   0.90683086  0.83446035  0.03105770
   0.91197770  0.83187452  0.53191363
   0.16866616  0.91752452  0.46582768
   0.16511380  0.91610632  0.96605281
   0.34732026  0.41443688  0.47075871
   0.33766045  0.40482100  0.96440668
   0.90820343  0.66224249  0.09222177
   0.91140445  0.66483913  0.58468744
   0.07935789  0.65893269  0.33652148
   0.06985208  0.65240400  0.84490269
   0.33579202  0.91357163  0.40724020
   0.33779865  0.91922423  0.90914534
   0.67136374  0.92635560  0.15407807
   0.66247917  0.90885806  0.66113958
   0.07879052  0.16465537  0.03686895
   0.07138799  0.16671475  0.53028753
   0.42064218  0.66942555  0.03354867
   0.41018390  0.66569072  0.54124441
   0.66311937  0.58962758  0.46171439
   0.66226396  0.57411598  0.96874468
   0.83142902  0.08653335  0.46871405
   0.85376196  0.07947958  0.96539227
   0.42276432  0.83327786  0.09699160
   0.41363236  0.83272453  0.58589603
   0.58177797  0.84235364  0.34205155
   0.59302977  0.82673546  0.83647959
   0.49970382  0.99927005  0.00101423
   0.50130203  0.99911214  0.50011970
   0.49938774  0.99786807  0.24958137
   0.49979616  0.00000697  0.74898112
   0.99890252  0.99998196  0.12497972
   0.99657156  0.00090575  0.62348826
   0.49939990  0.49894741  0.12607450
   0.49968021  0.50184124  0.62534026
   0.74908604  0.62816390  0.18847121
   0.75079955  0.62765768  0.68837140
   0.74987139  0.12770417  0.18649851
   0.74991335  0.12676405  0.68695539
   0.62755158  0.25010772  0.31230730
   0.62737895  0.25100154  0.81255158
   0.87130646  0.75143462  0.31279313
   0.86998858  0.74992478  0.81321130
   0.75061215  0.37348164  0.43755614
   0.75195448  0.37447955  0.93714367
   0.75133708  0.87141741  0.43740775
   0.74975469  0.87262223  0.93646562
   0.62819721  0.75048581  0.06209986
   0.62533155  0.74827338  0.56283037
   0.87149646  0.25209559  0.06349771
   0.87379706  0.25307987  0.56234410
   0.00053465  0.50137343  0.25066692
   0.99886424  0.49801452  0.74940557
   0.00146556  0.50033653  0.99829923
   0.99678363  0.49859583  0.50085848
   0.50190216  0.49961552  0.37347528
   0.50112764  0.49939882  0.87434971
   0.00444757  0.99986990  0.37560215
   0.00240694  0.99747062  0.87349730
   0.24965539  0.12910695  0.43670415
   0.25133052  0.12889338  0.93771700
   0.24924081  0.62780435  0.43665073
   0.25274115  0.62812078  0.93766040
   0.12629325  0.75024261  0.06163312
   0.12594682  0.75070492  0.56423387
   0.37011726  0.25148644  0.06336492
   0.36989681  0.24720991  0.56063006
   0.24582629  0.87115637  0.18890546
   0.24993155  0.87016821  0.68741882
   0.25046358  0.37154694  0.18726690
   0.25082243  0.37054981  0.68767408
   0.12664432  0.24999227  0.31186201
   0.12834884  0.24732674  0.81216327
   0.36974295  0.74863692  0.31122572
   0.37375673  0.75098965  0.81279770
   0.75026680  0.49951288  0.31359380
   0.75435790  0.49913637  0.81205293
   0.75206578  0.00224887  0.31084987
   0.75076441  0.00106209  0.81153344
   0.50128590  0.25076828  0.43961985
   0.49915265  0.24924050  0.93761243
   0.50055642  0.24963445  0.18697635
   0.50047961  0.24842651  0.68634628
   0.75161661  0.50174678  0.06292137
   0.74712032  0.49896218  0.56354117
   0.25289517  0.50006768  0.31402017
   0.24820980  0.50177574  0.81364422
   0.50195529  0.74953199  0.18857581